BEGIN_CFG
 Size
    29
 Supercell
        -4.222770      4.222770      4.222770
         4.222770     -4.222770      4.222770
         4.222770      4.222770     -4.222770
 AtomData:  id type       cartes_x      cartes_y      cartes_z           fx          fy          fz
             1    0       2.677240     -2.677240      2.677240     0.115909   -0.115909    0.115909
             2    0      -2.677240      2.677240      2.677240    -0.115909    0.115909    0.115909
             3    0       2.677240      2.677240     -2.677240     0.115909    0.115909   -0.115909
             4    0       1.545540      1.545540      1.545540    -0.115909   -0.115909   -0.115909
             5    0       0.000000      0.000000      0.000000     0.000000    0.000000    0.000000
             6    1       0.751650     -0.751650      2.347860     0.255488   -0.255488    0.489758
             7    1      -0.751650      0.751650      2.347860    -0.255488    0.255488    0.489758
             8    1       0.751650      0.751650      6.097690     0.255488    0.255488   -0.489758
             9    1       3.471120      3.471120      1.874910    -0.255488   -0.255488   -0.489758
            10    1       0.751650      6.097690      0.751650     0.255488   -0.489758    0.255488
            11    1       3.471120      1.874910      3.471120    -0.255488   -0.489758   -0.255488
            12    1      -0.751650      2.347860      0.751650    -0.255488    0.489758    0.255488
            13    1       0.751650      2.347860     -0.751650     0.255488    0.489758   -0.255488
            14    1       2.347860     -0.751650      0.751650     0.489758   -0.255488    0.255488
            15    1       2.347860      0.751650     -0.751650     0.489758    0.255488   -0.255488
            16    1       1.874910      3.471120      3.471120    -0.489758   -0.255488   -0.255488
            17    1       6.097690      0.751650      0.751650    -0.489758    0.255488    0.255488
            18    1      -1.216160      1.216160      4.577490     0.106223   -0.106223   -0.120210
            19    1       1.216160     -1.216160      4.577490    -0.106223    0.106223   -0.120210
            20    1       3.006620      3.006620     -0.354710     0.106223    0.106223    0.120210
            21    1       1.216160      1.216160      3.868060    -0.106223   -0.106223    0.120210
            22    1       3.006620     -0.354710      3.006620     0.106223    0.120210    0.106223
            23    1       1.216160      3.868060      1.216160    -0.106223    0.120210   -0.106223
            24    1       1.216160      4.577490     -1.216160    -0.106223   -0.120210    0.106223
            25    1      -1.216160      4.577490      1.216160     0.106223   -0.120210   -0.106223
            26    1       4.577490      1.216160     -1.216160    -0.120210   -0.106223    0.106223
            27    1       4.577490     -1.216160      1.216160    -0.120210    0.106223   -0.106223
            28    1       3.868060      1.216160      1.216160     0.120210   -0.106223   -0.106223
            29    1      -0.354710      3.006620      3.006620     0.120210    0.106223    0.106223
 Energy
       -187.361000000000
 PlusStress:  xx          yy          zz          yz          xz          xy
        13.12380    13.12380    13.12380     0.00000     0.00000     0.00000
 Feature   elements	BeCo
 Feature   from	aflow.org/JSON/BeCo/be161f40b1c928da/relax-step=1
 Feature   mindist	2.125987
END_CFG

BEGIN_CFG
 Size
    29
 Supercell
        -4.314960      4.314960      4.314960
         4.314960     -4.314960      4.314960
         4.314960      4.314960     -4.314960
 AtomData:  id type       cartes_x      cartes_y      cartes_z           fx          fy          fz
             1    0       2.741400     -2.741400      2.741400     0.100784   -0.100784    0.100784
             2    0      -2.741400      2.741400      2.741400    -0.100784    0.100784    0.100784
             3    0       2.741400      2.741400     -2.741400     0.100784    0.100784   -0.100784
             4    0       1.573560      1.573560      1.573560    -0.100784   -0.100784   -0.100784
             5    0       0.000000      0.000000      0.000000     0.000000    0.000000    0.000000
             6    1       0.780660     -0.780660      2.423260     0.065370   -0.065370    0.072593
             7    1      -0.780660      0.780660      2.423260    -0.065370    0.065370    0.072593
             8    1       0.780660      0.780660      6.206660     0.065370    0.065370   -0.072593
             9    1       3.534300      3.534300      1.891700    -0.065370   -0.065370   -0.072593
            10    1       0.780660      6.206660      0.780660     0.065370   -0.072593    0.065370
            11    1       3.534300      1.891700      3.534300    -0.065370   -0.072593   -0.065370
            12    1      -0.780660      2.423260      0.780660    -0.065370    0.072593    0.065370
            13    1       0.780660      2.423260     -0.780660     0.065370    0.072593   -0.065370
            14    1       2.423260     -0.780660      0.780660     0.072593   -0.065370    0.065370
            15    1       2.423260      0.780660     -0.780660     0.072593    0.065370   -0.065370
            16    1       1.891700      3.534300      3.534300    -0.072593   -0.065370   -0.065370
            17    1       6.206660      0.780660      0.780660    -0.072593    0.065370    0.065370
            18    1      -1.237470      1.237470      4.671490     0.052872   -0.052872   -0.036048
            19    1       1.237470     -1.237470      4.671490    -0.052872    0.052872   -0.036048
            20    1       3.077490      3.077490     -0.356530     0.052872    0.052872    0.036048
            21    1       1.237470      1.237470      3.958430    -0.052872   -0.052872    0.036048
            22    1       3.077490     -0.356530      3.077490     0.052872    0.036048    0.052872
            23    1       1.237470      3.958430      1.237470    -0.052872    0.036048   -0.052872
            24    1       1.237470      4.671490     -1.237470    -0.052872   -0.036048    0.052872
            25    1      -1.237470      4.671490      1.237470     0.052872   -0.036048   -0.052872
            26    1       4.671490      1.237470     -1.237470    -0.036048   -0.052872    0.052872
            27    1       4.671490     -1.237470      1.237470    -0.036048    0.052872   -0.052872
            28    1       3.958430      1.237470      1.237470     0.036048   -0.052872   -0.052872
            29    1      -0.356530      3.077490      3.077490     0.036048    0.052872    0.052872
 Energy
       -187.541000000000
 PlusStress:  xx          yy          zz          yz          xz          xy
       -10.94950   -10.94950   -10.94950     0.00000     0.00000     0.00000
 Feature   elements	BeCo
 Feature   from	aflow.org/JSON/BeCo/be161f40b1c928da/relax-step=2
 Feature   mindist	2.208040
END_CFG

BEGIN_CFG
 Size
    29
 Supercell
        -4.277810      4.277810      4.277810
         4.277810     -4.277810      4.277810
         4.277810      4.277810     -4.277810
 AtomData:  id type       cartes_x      cartes_y      cartes_z           fx          fy          fz
             1    0       2.715560     -2.715560      2.715560     0.103612   -0.103612    0.103612
             2    0      -2.715560      2.715560      2.715560    -0.103612    0.103612    0.103612
             3    0       2.715560      2.715560     -2.715560     0.103612    0.103612   -0.103612
             4    0       1.562250      1.562250      1.562250    -0.103612   -0.103612   -0.103612
             5    0       0.000000      0.000000      0.000000     0.000000    0.000000    0.000000
             6    1       0.769010     -0.769010      2.392960     0.130565   -0.130565    0.222620
             7    1      -0.769010      0.769010      2.392960    -0.130565    0.130565    0.222620
             8    1       0.769010      0.769010      6.162660     0.130565    0.130565   -0.222620
             9    1       3.508800      3.508800      1.884850    -0.130565   -0.130565   -0.222620
            10    1       0.769010      6.162660      0.769010     0.130565   -0.222620    0.130565
            11    1       3.508800      1.884850      3.508800    -0.130565   -0.222620   -0.130565
            12    1      -0.769010      2.392960      0.769010    -0.130565    0.222620    0.130565
            13    1       0.769010      2.392960     -0.769010     0.130565    0.222620   -0.130565
            14    1       2.392960     -0.769010      0.769010     0.222620   -0.130565    0.130565
            15    1       2.392960      0.769010     -0.769010     0.222620    0.130565   -0.130565
            16    1       1.884850      3.508800      3.508800    -0.222620   -0.130565   -0.130565
            17    1       6.162660      0.769010      0.769010    -0.222620    0.130565    0.130565
            18    1      -1.228870      1.228870      4.633590     0.072351   -0.072351   -0.063423
            19    1       1.228870     -1.228870      4.633590    -0.072351    0.072351   -0.063423
            20    1       3.048950      3.048950     -0.355780     0.072351    0.072351    0.063423
            21    1       1.228870      1.228870      3.922030    -0.072351   -0.072351    0.063423
            22    1       3.048950     -0.355780      3.048950     0.072351    0.063423    0.072351
            23    1       1.228870      3.922030      1.228870    -0.072351    0.063423   -0.072351
            24    1       1.228870      4.633590     -1.228870    -0.072351   -0.063423    0.072351
            25    1      -1.228870      4.633590      1.228870     0.072351   -0.063423   -0.072351
            26    1       4.633590      1.228870     -1.228870    -0.063423   -0.072351    0.072351
            27    1       4.633590     -1.228870      1.228870    -0.063423    0.072351   -0.072351
            28    1       3.922030      1.228870      1.228870     0.063423   -0.072351   -0.072351
            29    1      -0.355780      3.048950      3.048950     0.063423    0.072351    0.072351
 Energy
       -187.679000000000
 PlusStress:  xx          yy          zz          yz          xz          xy
        -2.51141    -2.51141    -2.51141     0.00000     0.00000     0.00000
 Feature   elements	BeCo
 Feature   from	aflow.org/JSON/BeCo/be161f40b1c928da/relax-step=3
 Feature   mindist	2.175089
END_CFG

BEGIN_CFG
 Size
    29
 Supercell
        -4.272040      4.272040      4.272040
         4.272040     -4.272040      4.272040
         4.272040      4.272040     -4.272040
 AtomData:  id type       cartes_x      cartes_y      cartes_z           fx          fy          fz
             1    0       2.717130     -2.717130      2.717130     0.102555   -0.102555    0.102555
             2    0      -2.717130      2.717130      2.717130    -0.102555    0.102555    0.102555
             3    0       2.717130      2.717130     -2.717130     0.102555    0.102555   -0.102555
             4    0       1.554910      1.554910      1.554910    -0.102555   -0.102555   -0.102555
             5    0       0.000000      0.000000      0.000000     0.000000    0.000000    0.000000
             6    1       0.775160     -0.775160      2.402290     0.016524   -0.016524    0.009539
             7    1      -0.775160      0.775160      2.402290    -0.016524    0.016524    0.009539
             8    1       0.775160      0.775160      6.141800     0.016524    0.016524   -0.009539
             9    1       3.496880      3.496880      1.869760    -0.016524   -0.016524   -0.009539
            10    1       0.775160      6.141800      0.775160     0.016524   -0.009539    0.016524
            11    1       3.496880      1.869760      3.496880    -0.016524   -0.009539   -0.016524
            12    1      -0.775160      2.402290      0.775160    -0.016524    0.009539    0.016524
            13    1       0.775160      2.402290     -0.775160     0.016524    0.009539   -0.016524
            14    1       2.402290     -0.775160      0.775160     0.009539   -0.016524    0.016524
            15    1       2.402290      0.775160     -0.775160     0.009539    0.016524   -0.016524
            16    1       1.869760      3.496880      3.496880    -0.009539   -0.016524   -0.016524
            17    1       6.141800      0.775160      0.775160    -0.009539    0.016524    0.016524
            18    1      -1.223420      1.223420      4.623870     0.035845   -0.035845    0.056675
            19    1       1.223420     -1.223420      4.623870    -0.035845    0.035845    0.056675
            20    1       3.048620      3.048620     -0.351830     0.035845    0.035845   -0.056675
            21    1       1.223420      1.223420      3.920210    -0.035845   -0.035845   -0.056675
            22    1       3.048620     -0.351830      3.048620     0.035845   -0.056675    0.035845
            23    1       1.223420      3.920210      1.223420    -0.035845   -0.056675   -0.035845
            24    1       1.223420      4.623870     -1.223420    -0.035845    0.056675    0.035845
            25    1      -1.223420      4.623870      1.223420     0.035845    0.056675   -0.035845
            26    1       4.623870      1.223420     -1.223420     0.056675   -0.035845    0.035845
            27    1       4.623870     -1.223420      1.223420     0.056675    0.035845   -0.035845
            28    1       3.920210      1.223420      1.223420    -0.056675   -0.035845   -0.035845
            29    1      -0.351830      3.048620      3.048620    -0.056675    0.035845    0.035845
 Energy
       -187.728000000000
 PlusStress:  xx          yy          zz          yz          xz          xy
        -0.54308    -0.54308    -0.54308     0.00000     0.00000     0.00000
 Feature   elements	BeCo
 Feature   from	aflow.org/JSON/BeCo/be161f40b1c928da/relax-step=4
 Feature   mindist	2.192484
END_CFG

BEGIN_CFG
 Size
    29
 Supercell
        -4.270600      4.270600      4.270600
         4.270600     -4.270600      4.270600
         4.270600      4.270600     -4.270600
 AtomData:  id type       cartes_x      cartes_y      cartes_z           fx          fy          fz
             1    0       2.717520     -2.717520      2.717520     0.102431   -0.102431    0.102431
             2    0      -2.717520      2.717520      2.717520    -0.102431    0.102431    0.102431
             3    0       2.717520      2.717520     -2.717520     0.102431    0.102431   -0.102431
             4    0       1.553080      1.553080      1.553080    -0.102431   -0.102431   -0.102431
             5    0       0.000000      0.000000      0.000000     0.000000    0.000000    0.000000
             6    1       0.776700     -0.776700      2.404620    -0.011884    0.011884   -0.044957
             7    1      -0.776700      0.776700      2.404620     0.011884   -0.011884   -0.044957
             8    1       0.776700      0.776700      6.136570    -0.011884   -0.011884    0.044957
             9    1       3.493890      3.493890      1.865970     0.011884    0.011884    0.044957
            10    1       0.776700      6.136570      0.776700    -0.011884    0.044957   -0.011884
            11    1       3.493890      1.865970      3.493890     0.011884    0.044957    0.011884
            12    1      -0.776700      2.404620      0.776700     0.011884   -0.044957   -0.011884
            13    1       0.776700      2.404620     -0.776700    -0.011884   -0.044957    0.011884
            14    1       2.404620     -0.776700      0.776700    -0.044957    0.011884   -0.011884
            15    1       2.404620      0.776700     -0.776700    -0.044957   -0.011884    0.011884
            16    1       1.865970      3.493890      3.493890     0.044957    0.011884    0.011884
            17    1       6.136570      0.776700      0.776700     0.044957   -0.011884   -0.011884
            18    1      -1.222050      1.222050      4.621430     0.026290   -0.026290    0.088942
            19    1       1.222050     -1.222050      4.621430    -0.026290    0.026290    0.088942
            20    1       3.048540      3.048540     -0.350840     0.026290    0.026290   -0.088942
            21    1       1.222050      1.222050      3.919760    -0.026290   -0.026290   -0.088942
            22    1       3.048540     -0.350840      3.048540     0.026290   -0.088942    0.026290
            23    1       1.222050      3.919760      1.222050    -0.026290   -0.088942   -0.026290
            24    1       1.222050      4.621430     -1.222050    -0.026290    0.088942    0.026290
            25    1      -1.222050      4.621430      1.222050     0.026290    0.088942   -0.026290
            26    1       4.621430      1.222050     -1.222050     0.088942   -0.026290    0.026290
            27    1       4.621430     -1.222050      1.222050     0.088942    0.026290   -0.026290
            28    1       3.919760      1.222050      1.222050    -0.088942   -0.026290   -0.026290
            29    1      -0.350840      3.048540      3.048540    -0.088942    0.026290    0.026290
 Energy
       -187.730000000000
 PlusStress:  xx          yy          zz          yz          xz          xy
        -0.11473    -0.11473    -0.11473     0.00000     0.00000     0.00000
 Feature   elements	BeCo
 Feature   from	aflow.org/JSON/BeCo/be161f40b1c928da/relax-step=5
 Feature   mindist	2.196839
END_CFG

BEGIN_CFG
 Size
    29
 Supercell
        -4.268920      4.268920      4.268920
         4.268920     -4.268920      4.268920
         4.268920      4.268920     -4.268920
 AtomData:  id type       cartes_x      cartes_y      cartes_z           fx          fy          fz
             1    0       2.722030     -2.722030      2.722030     0.100131   -0.100131    0.100131
             2    0      -2.722030      2.722030      2.722030    -0.100131    0.100131    0.100131
             3    0       2.722030      2.722030     -2.722030     0.100131    0.100131   -0.100131
             4    0       1.546890      1.546890      1.546890    -0.100131   -0.100131   -0.100131
             5    0       0.000000      0.000000      0.000000     0.000000    0.000000    0.000000
             6    1       0.776960     -0.776960      2.403530    -0.013157    0.013157   -0.027464
             7    1      -0.776960      0.776960      2.403530     0.013157   -0.013157   -0.027464
             8    1       0.776960      0.776960      6.134310    -0.013157   -0.013157    0.027464
             9    1       3.491960      3.491960      1.865390     0.013157    0.013157    0.027464
            10    1       0.776960      6.134310      0.776960    -0.013157    0.027464   -0.013157
            11    1       3.491960      1.865390      3.491960     0.013157    0.027464    0.013157
            12    1      -0.776960      2.403530      0.776960     0.013157   -0.027464   -0.013157
            13    1       0.776960      2.403530     -0.776960    -0.013157   -0.027464    0.013157
            14    1       2.403530     -0.776960      0.776960    -0.027464    0.013157   -0.013157
            15    1       2.403530      0.776960     -0.776960    -0.027464   -0.013157    0.013157
            16    1       1.865390      3.491960      3.491960     0.027464    0.013157    0.013157
            17    1       6.134310      0.776960      0.776960     0.027464   -0.013157   -0.013157
            18    1      -1.219760      1.219760      4.623220     0.016451   -0.016451    0.074174
            19    1       1.219760     -1.219760      4.623220    -0.016451    0.016451    0.074174
            20    1       3.049160      3.049160     -0.354300     0.016451    0.016451   -0.074174
            21    1       1.219760      1.219760      3.914620    -0.016451   -0.016451   -0.074174
            22    1       3.049160     -0.354300      3.049160     0.016451   -0.074174    0.016451
            23    1       1.219760      3.914620      1.219760    -0.016451   -0.074174   -0.016451
            24    1       1.219760      4.623220     -1.219760    -0.016451    0.074174    0.016451
            25    1      -1.219760      4.623220      1.219760     0.016451    0.074174   -0.016451
            26    1       4.623220      1.219760     -1.219760     0.074174   -0.016451    0.016451
            27    1       4.623220     -1.219760      1.219760     0.074174    0.016451   -0.016451
            28    1       3.914620      1.219760      1.219760    -0.074174   -0.016451   -0.016451
            29    1      -0.354300      3.049160      3.049160    -0.074174    0.016451    0.016451
 Energy
       -187.741000000000
 PlusStress:  xx          yy          zz          yz          xz          xy
         0.26803     0.26803     0.26803     0.00000     0.00000     0.00000
 Feature   elements	BeCo
 Feature   from	aflow.org/JSON/BeCo/be161f40b1c928da/relax-step=6
 Feature   mindist	2.197575
END_CFG

BEGIN_CFG
 Size
    29
 Supercell
        -4.263890      4.263890      4.263890
         4.263890     -4.263890      4.263890
         4.263890      4.263890     -4.263890
 AtomData:  id type       cartes_x      cartes_y      cartes_z           fx          fy          fz
             1    0       2.735550     -2.735550      2.735550     0.080668   -0.080668    0.080668
             2    0      -2.735550      2.735550      2.735550    -0.080668    0.080668    0.080668
             3    0       2.735550      2.735550     -2.735550     0.080668    0.080668   -0.080668
             4    0       1.528340      1.528340      1.528340    -0.080668   -0.080668   -0.080668
             5    0       0.000000      0.000000      0.000000     0.000000    0.000000    0.000000
             6    1       0.777720     -0.777720      2.400250    -0.015486    0.015486    0.026594
             7    1      -0.777720      0.777720      2.400250     0.015486   -0.015486    0.026594
             8    1       0.777720      0.777720      6.127530    -0.015486   -0.015486   -0.026594
             9    1       3.486170      3.486170      1.863640     0.015486    0.015486   -0.026594
            10    1       0.777720      6.127530      0.777720    -0.015486   -0.026594   -0.015486
            11    1       3.486170      1.863640      3.486170     0.015486   -0.026594    0.015486
            12    1      -0.777720      2.400250      0.777720     0.015486    0.026594   -0.015486
            13    1       0.777720      2.400250     -0.777720    -0.015486    0.026594    0.015486
            14    1       2.400250     -0.777720      0.777720     0.026594    0.015486   -0.015486
            15    1       2.400250      0.777720     -0.777720     0.026594   -0.015486    0.015486
            16    1       1.863640      3.486170      3.486170    -0.026594    0.015486    0.015486
            17    1       6.127530      0.777720      0.777720    -0.026594   -0.015486   -0.015486
            18    1      -1.212900      1.212900      4.628580    -0.015153    0.015153    0.026677
            19    1       1.212900     -1.212900      4.628580     0.015153   -0.015153    0.026677
            20    1       3.050990      3.050990     -0.364690    -0.015153   -0.015153   -0.026677
            21    1       1.212900      1.212900      3.899200     0.015153    0.015153   -0.026677
            22    1       3.050990     -0.364690      3.050990    -0.015153   -0.026677   -0.015153
            23    1       1.212900      3.899200      1.212900     0.015153   -0.026677    0.015153
            24    1       1.212900      4.628580     -1.212900     0.015153    0.026677   -0.015153
            25    1      -1.212900      4.628580      1.212900    -0.015153    0.026677    0.015153
            26    1       4.628580      1.212900     -1.212900     0.026677    0.015153   -0.015153
            27    1       4.628580     -1.212900      1.212900     0.026677   -0.015153    0.015153
            28    1       3.899200      1.212900      1.212900    -0.026677    0.015153    0.015153
            29    1      -0.364690      3.050990      3.050990    -0.026677   -0.015153   -0.015153
 Energy
       -187.764000000000
 PlusStress:  xx          yy          zz          yz          xz          xy
         1.90249     1.90249     1.90249     0.00000     0.00000     0.00000
 Feature   elements	BeCo
 Feature   from	aflow.org/JSON/BeCo/be161f40b1c928da/relax-step=7
 Feature   mindist	2.199724
END_CFG

BEGIN_CFG
 Size
    29
 Supercell
        -4.253830      4.253830      4.253830
         4.253830     -4.253830      4.253830
         4.253830      4.253830     -4.253830
 AtomData:  id type       cartes_x      cartes_y      cartes_z           fx          fy          fz
             1    0       2.762500     -2.762500      2.762500     0.023660   -0.023660    0.023660
             2    0      -2.762500      2.762500      2.762500    -0.023660    0.023660    0.023660
             3    0       2.762500      2.762500     -2.762500     0.023660    0.023660   -0.023660
             4    0       1.491330      1.491330      1.491330    -0.023660   -0.023660   -0.023660
             5    0       0.000000      0.000000      0.000000     0.000000    0.000000    0.000000
             6    1       0.779250     -0.779250      2.393710    -0.018812    0.018812    0.133753
             7    1      -0.779250      0.779250      2.393710     0.018812   -0.018812    0.133753
             8    1       0.779250      0.779250      6.113960    -0.018812   -0.018812   -0.133753
             9    1       3.474590      3.474590      1.860130     0.018812    0.018812   -0.133753
            10    1       0.779250      6.113960      0.779250    -0.018812   -0.133753   -0.018812
            11    1       3.474590      1.860130      3.474590     0.018812   -0.133753    0.018812
            12    1      -0.779250      2.393710      0.779250     0.018812    0.133753   -0.018812
            13    1       0.779250      2.393710     -0.779250    -0.018812    0.133753    0.018812
            14    1       2.393710     -0.779250      0.779250     0.133753    0.018812   -0.018812
            15    1       2.393710      0.779250     -0.779250     0.133753   -0.018812    0.018812
            16    1       1.860130      3.474590      3.474590    -0.133753    0.018812    0.018812
            17    1       6.113960      0.779250      0.779250    -0.133753   -0.018812   -0.018812
            18    1      -1.199190      1.199190      4.639240    -0.086574    0.086574   -0.072907
            19    1       1.199190     -1.199190      4.639240     0.086574   -0.086574   -0.072907
            20    1       3.054640      3.054640     -0.385410    -0.086574   -0.086574    0.072907
            21    1       1.199190      1.199190      3.868430     0.086574    0.086574    0.072907
            22    1       3.054640     -0.385410      3.054640    -0.086574    0.072907   -0.086574
            23    1       1.199190      3.868430      1.199190     0.086574    0.072907    0.086574
            24    1       1.199190      4.639240     -1.199190     0.086574   -0.072907   -0.086574
            25    1      -1.199190      4.639240      1.199190    -0.086574   -0.072907    0.086574
            26    1       4.639240      1.199190     -1.199190    -0.072907    0.086574   -0.086574
            27    1       4.639240     -1.199190      1.199190    -0.072907   -0.086574    0.086574
            28    1       3.868430      1.199190      1.199190     0.072907    0.086574    0.086574
            29    1      -0.385410      3.054640      3.054640     0.072907   -0.086574   -0.086574
 Energy
       -187.747000000000
 PlusStress:  xx          yy          zz          yz          xz          xy
         3.67241     3.67241     3.67241     0.00000     0.00000     0.00000
 Feature   elements	BeCo
 Feature   from	aflow.org/JSON/BeCo/be161f40b1c928da/relax-step=8
 Feature   mindist	2.204038
END_CFG

BEGIN_CFG
 Size
    29
 Supercell
        -4.261370      4.261370      4.261370
         4.261370     -4.261370      4.261370
         4.261370      4.261370     -4.261370
 AtomData:  id type       cartes_x      cartes_y      cartes_z           fx          fy          fz
             1    0       2.742270     -2.742270      2.742270     0.066994   -0.066994    0.066994
             2    0      -2.742270      2.742270      2.742270    -0.066994    0.066994    0.066994
             3    0       2.742270      2.742270     -2.742270     0.066994    0.066994   -0.066994
             4    0       1.519090      1.519090      1.519090    -0.066994   -0.066994   -0.066994
             5    0       0.000000      0.000000      0.000000     0.000000    0.000000    0.000000
             6    1       0.778100     -0.778100      2.398610    -0.017496    0.017496    0.052142
             7    1      -0.778100      0.778100      2.398610     0.017496   -0.017496    0.052142
             8    1       0.778100      0.778100      6.124120    -0.017496   -0.017496   -0.052142
             9    1       3.483260      3.483260      1.862750     0.017496    0.017496   -0.052142
            10    1       0.778100      6.124120      0.778100    -0.017496   -0.052142   -0.017496
            11    1       3.483260      1.862750      3.483260     0.017496   -0.052142    0.017496
            12    1      -0.778100      2.398610      0.778100     0.017496    0.052142   -0.017496
            13    1       0.778100      2.398610     -0.778100    -0.017496    0.052142    0.017496
            14    1       2.398610     -0.778100      0.778100     0.052142    0.017496   -0.017496
            15    1       2.398610      0.778100     -0.778100     0.052142   -0.017496    0.017496
            16    1       1.862750      3.483260      3.483260    -0.052142    0.017496    0.017496
            17    1       6.124120      0.778100      0.778100    -0.052142   -0.017496   -0.017496
            18    1      -1.209470      1.209470      4.631230    -0.033412    0.033412   -0.000854